Program Version,EnergyPlus, Version 9.0.1-bb7ca4f0da, YMD=2025.07.03 14:29
1,5,Environment Title[],Latitude[deg],Longitude[deg],Time Zone[],Elevation[m]
2,8,Day of Simulation[],Month[],Day of Month[],DST Indicator[1=yes 0=no],Hour[],StartMinute[],EndMinute[],DayType
3,5,Cumulative Day of Simulation[],Month[],Day of Month[],DST Indicator[1=yes 0=no],DayType  ! When Daily Meters Requested
4,2,Cumulative Days of Simulation[],Month[]  ! When Monthly Meters Requested
5,1,Cumulative Days of Simulation[] ! When Run Period Meters Requested
6,1,Calendar Year of Simulation[] ! When Annual Meters Requested
9,1,Electricity:Facility [J] !Hourly
871,1,ElectricityNet:Facility [J] !Hourly
1116,1,Gas:Facility [J] !Hourly
End of Data Dictionary
1,RUNPERIOD 1,  47.47,-122.32,  -8.00, 122.00
2,1, 1, 1, 0, 1, 0.00,60.00,Holiday
9,10792145.056820916
871,10792145.056820915
1116,0.0
2,1, 1, 1, 0, 2, 0.00,60.00,Holiday
9,11148231.954265427
871,11148231.954265427
1116,0.0
2,1, 1, 1, 0, 3, 0.00,60.00,Holiday
9,11063052.996036865
871,11063052.996036865
1116,0.0
2,1, 1, 1, 0, 4, 0.00,60.00,Holiday
9,10846409.906220334
871,10846409.906220334
1116,0.0
2,1, 1, 1, 0, 5, 0.00,60.00,Holiday
9,10985842.470378392
871,10985842.47037839
1116,0.0
2,1, 1, 1, 0, 6, 0.00,60.00,Holiday
9,10786456.709593796
871,10786456.709593796
1116,0.0
2,1, 1, 1, 0, 7, 0.00,60.00,Holiday
9,11702935.212923656
871,11702935.212923654
1116,0.0
2,1, 1, 1, 0, 8, 0.00,60.00,Holiday
9,11783425.238519963
871,11783425.238519961
1116,0.0
2,1, 1, 1, 0, 9, 0.00,60.00,Holiday
9,8388993.122212815
871,8388993.122212816
1116,0.0
2,1, 1, 1, 0,10, 0.00,60.00,Holiday
9,7941975.560545934
871,7941975.560545932
1116,0.0
2,1, 1, 1, 0,11, 0.00,60.00,Holiday
9,7117642.221470749
871,7117642.22147075
1116,0.0
2,1, 1, 1, 0,12, 0.00,60.00,Holiday
9,6953769.23890112
871,6953769.23890112
1116,0.0
2,1, 1, 1, 0,13, 0.00,60.00,Holiday
9,7271620.195151013
871,7271620.195151013
1116,0.0
2,1, 1, 1, 0,14, 0.00,60.00,Holiday
9,7619410.225994073
871,7619410.225994071
1116,0.0
2,1, 1, 1, 0,15, 0.00,60.00,Holiday
9,7598329.334332142
871,7598329.334332143
1116,0.0
2,1, 1, 1, 0,16, 0.00,60.00,Holiday
9,7806424.917800824
871,7806424.917800824
1116,0.0
2,1, 1, 1, 0,17, 0.00,60.00,Holiday
9,10237918.95026165
871,10237918.950261649
1116,0.0
2,1, 1, 1, 0,18, 0.00,60.00,Holiday
9,11793411.487384089
871,11793411.487384087
1116,0.0
2,1, 1, 1, 0,19, 0.00,60.00,Holiday
9,11517026.684224733
871,11517026.684224733
1116,0.0
2,1, 1, 1, 0,20, 0.00,60.00,Holiday
9,11722927.767792028
871,11722927.767792028
1116,0.0
2,1, 1, 1, 0,21, 0.00,60.00,Holiday
9,11975983.748306964
871,11975983.748306964
1116,0.0
2,1, 1, 1, 0,22, 0.00,60.00,Holiday
9,11939302.536845062
871,11939302.536845062
1116,0.0
2,1, 1, 1, 0,23, 0.00,60.00,Holiday
9,12168497.855957177
871,12168497.855957177
1116,0.0
2,1, 1, 1, 0,24, 0.00,60.00,Holiday
9,12083987.28785751
871,12083987.28785751
1116,0.0
2,2, 1, 2, 0, 1, 0.00,60.00,Monday
9,13244378.250789354
871,13244378.250789354
1116,0.0
2,2, 1, 2, 0, 2, 0.00,60.00,Monday
9,13247751.093400862
871,13247751.093400862
1116,0.0
2,2, 1, 2, 0, 3, 0.00,60.00,Monday
9,13165152.49310323
871,13165152.49310323
1116,0.0
2,2, 1, 2, 0, 4, 0.00,60.00,Monday
9,13121044.180135742
871,13121044.180135742
1116,0.0
2,2, 1, 2, 0, 5, 0.00,60.00,Monday
9,12948514.710543814
871,12948514.710543814
1116,0.0
2,2, 1, 2, 0, 6, 0.00,60.00,Monday
9,13722068.24097529
871,13722068.240975289
1116,0.0
2,2, 1, 2, 0, 7, 0.00,60.00,Monday
9,43134136.91593034
871,43134136.915930349
1116,0.0
2,2, 1, 2, 0, 8, 0.00,60.00,Monday
9,44360323.34035233
871,44360323.34035233
1116,0.0
2,2, 1, 2, 0, 9, 0.00,60.00,Monday
9,47544232.70007205
871,47544232.70007205
1116,0.0
2,2, 1, 2, 0,10, 0.00,60.00,Monday
9,44800394.699720147
871,44800394.69972014
1116,0.0
2,2, 1, 2, 0,11, 0.00,60.00,Monday
9,42223643.669094529
871,42223643.66909452
1116,0.0
2,2, 1, 2, 0,12, 0.00,60.00,Monday
9,39706643.80656019
871,39706643.80656019
1116,0.0
2,2, 1, 2, 0,13, 0.00,60.00,Monday
9,40015495.14374158
871,40015495.14374158
1116,0.0
2,2, 1, 2, 0,14, 0.00,60.00,Monday
9,38934694.017600189
871,38934694.017600189
1116,0.0
2,2, 1, 2, 0,15, 0.00,60.00,Monday
9,38509509.99385992
871,38509509.99385992
1116,0.0
2,2, 1, 2, 0,16, 0.00,60.00,Monday
9,38093958.5652956
871,38093958.5652956
1116,0.0
2,2, 1, 2, 0,17, 0.00,60.00,Monday
9,39708161.02692756
871,39708161.02692756
1116,0.0
2,2, 1, 2, 0,18, 0.00,60.00,Monday
9,35133361.68703778
871,35133361.68703779
1116,0.0
2,2, 1, 2, 0,19, 0.00,60.00,Monday
9,29684827.669029587
871,29684827.66902959
1116,0.0
2,2, 1, 2, 0,20, 0.00,60.00,Monday
9,13031418.059538959
871,13031418.059538955
1116,0.0
2,2, 1, 2, 0,21, 0.00,60.00,Monday
9,11769894.910823154
871,11769894.910823152
1116,0.0
2,2, 1, 2, 0,22, 0.00,60.00,Monday
9,11769894.910823154
871,11769894.910823152
1116,0.0
2,2, 1, 2, 0,23, 0.00,60.00,Monday
9,10634524.076916654
871,10634524.076916654
1116,0.0
2,2, 1, 2, 0,24, 0.00,60.00,Monday
9,10305881.415921547
871,10305881.415921547
1116,0.0
End of Data
 Number of Records Written=         144
